<?xml version="1.0"?>
<VTKFile type="UnstructuredGrid"  version="0.1"  >
<UnstructuredGrid>
<Piece  NumberOfPoints="841" NumberOfCells="1600">
<Points>
<DataArray  type="Float64"  NumberOfComponents="3"  format="ascii">0 1 0  0 0.95 0  0 0.9 0  0 0.85 0  0 0.8 0  0 0.75 0  0 0.7 0  0 0.65 0  0 0.6 0  0 0.55 0  0 0.5 0  0 0.45 0  0 0.4 0  0 0.35 0  0 0.3 0  0 0.25 0  0 0.2 0  0 0.15 0  0 0.09999999999999998 0  0 0.05000000000000004 0  0 0 0  0.028107896795 1 0  0.028107896795 0.95 0  0.028107896795 0.9 0  0.028107896795 0.85 0  0.028107896795 0.8 0  0.028107896795 0.75 0  0.028107896795 0.7 0  0.028107896795 0.65 0  0.028107896795 0.6 0  0.028107896795 0.55 0  0.028107896795 0.5 0  0.028107896795 0.45 0  0.028107896795 0.4 0  0.028107896795 0.35 0  0.028107896795 0.3 0  0.028107896795 0.25 0  0.028107896795 0.2 0  0.028107896795 0.15 0  0.028107896795 0.09999999999999998 0  0.028107896795 0.05000000000000004 0  0.028107896795 0 0  0.05621579359 1 0  0.05621579359 0.95 0  0.05621579359 0.9 0  0.05621579359 0.85 0  0.05621579359 0.8 0  0.05621579359 0.75 0  0.05621579359 0.7 0  0.05621579359 0.65 0  0.05621579359 0.6 0  0.05621579359 0.55 0  0.05621579359 0.5 0  0.05621579359 0.45 0  0.05621579359 0.4 0  0.05621579359 0.35 0  0.05621579359 0.3 0  0.05621579359 0.25 0  0.05621579359 0.2 0  0.05621579359 0.15 0  0.05621579359 0.09999999999999998 0  0.05621579359 0.05000000000000004 0  0.05621579359 0 0  0.084323690385 1 0  0.084323690385 0.95 0  0.084323690385 0.9 0  0.084323690385 0.85 0  0.084323690385 0.8 0  0.084323690385 0.75 0  0.084323690385 0.7 0  0.084323690385 0.65 0  0.084323690385 0.6 0  0.084323690385 0.55 0  0.084323690385 0.5 0  0.084323690385 0.45 0  0.084323690385 0.4 0  0.084323690385 0.35 0  0.084323690385 0.3 0  0.084323690385 0.25 0  0.084323690385 0.2 0  0.084323690385 0.15 0  0.084323690385 0.09999999999999998 0  0.084323690385 0.05000000000000004 0  0.084323690385 0 0  0.11243158718 1 0  0.11243158718 0.95 0  0.11243158718 0.9 0  0.11243158718 0.85 0  0.11243158718 0.8 0  0.11243158718 0.75 0  0.11243158718 0.7 0  0.11243158718 0.65 0  0.11243158718 0.6 0  0.11243158718 0.55 0  0.11243158718 0.5 0  0.11243158718 0.45 0  0.11243158718 0.4 0  0.11243158718 0.35 0  0.11243158718 0.3 0  0.11243158718 0.25 0  0.11243158718 0.2 0  0.11243158718 0.15 0  0.11243158718 0.09999999999999998 0  0.11243158718 0.05000000000000004 0  0.11243158718 0 0  0.140539483975 1 0  0.140539483975 0.95 0  0.140539483975 0.9 0  0.140539483975 0.85 0  0.140539483975 0.8 0  0.140539483975 0.75 0  0.140539483975 0.7 0  0.140539483975 0.65 0  0.140539483975 0.6 0  0.140539483975 0.55 0  0.140539483975 0.5 0  0.140539483975 0.45 0  0.140539483975 0.4 0  0.140539483975 0.35 0  0.140539483975 0.3 0  0.140539483975 0.25 0  0.140539483975 0.2 0  0.140539483975 0.15 0  0.140539483975 0.09999999999999998 0  0.140539483975 0.05000000000000004 0  0.140539483975 0 0  0.16864738077 1 0  0.16864738077 0.95 0  0.16864738077 0.9 0  0.16864738077 0.85 0  0.16864738077 0.8 0  0.16864738077 0.75 0  0.16864738077 0.7 0  0.16864738077 0.65 0  0.16864738077 0.6 0  0.16864738077 0.55 0  0.16864738077 0.5 0  0.16864738077 0.45 0  0.16864738077 0.4 0  0.16864738077 0.35 0  0.16864738077 0.3 0  0.16864738077 0.25 0  0.16864738077 0.2 0  0.16864738077 0.15 0  0.16864738077 0.09999999999999998 0  0.16864738077 0.05000000000000004 0  0.16864738077 0 0  0.196755277565 1 0  0.196755277565 0.95 0  0.196755277565 0.9 0  0.196755277565 0.85 0  0.196755277565 0.8 0  0.196755277565 0.75 0  0.196755277565 0.7 0  0.196755277565 0.65 0  0.196755277565 0.6 0  0.196755277565 0.55 0  0.196755277565 0.5 0  0.196755277565 0.45 0  0.196755277565 0.4 0  0.196755277565 0.35 0  0.196755277565 0.3 0  0.196755277565 0.25 0  0.196755277565 0.2 0  0.196755277565 0.15 0  0.196755277565 0.09999999999999998 0  0.196755277565 0.05000000000000004 0  0.196755277565 0 0  0.22486317436 1 0  0.22486317436 0.95 0  0.22486317436 0.9 0  0.22486317436 0.85 0  0.22486317436 0.8 0  0.22486317436 0.75 0  0.22486317436 0.7 0  0.22486317436 0.65 0  0.22486317436 0.6 0  0.22486317436 0.55 0  0.22486317436 0.5 0  0.22486317436 0.45 0  0.22486317436 0.4 0  0.22486317436 0.35 0  0.22486317436 0.3 0  0.22486317436 0.25 0  0.22486317436 0.2 0  0.22486317436 0.15 0  0.22486317436 0.09999999999999998 0  0.22486317436 0.05000000000000004 0  0.22486317436 0 0  0.252971071155 1 0  0.252971071155 0.95 0  0.252971071155 0.9 0  0.252971071155 0.85 0  0.252971071155 0.8 0  0.252971071155 0.75 0  0.252971071155 0.7 0  0.252971071155 0.65 0  0.252971071155 0.6 0  0.252971071155 0.55 0  0.252971071155 0.5 0  0.252971071155 0.45 0  0.252971071155 0.4 0  0.252971071155 0.35 0  0.252971071155 0.3 0  0.252971071155 0.25 0  0.252971071155 0.2 0  0.252971071155 0.15 0  0.252971071155 0.09999999999999998 0  0.252971071155 0.05000000000000004 0  0.252971071155 0 0  0.28107896795 1 0  0.28107896795 0.95 0  0.28107896795 0.9 0  0.28107896795 0.85 0  0.28107896795 0.8 0  0.28107896795 0.75 0  0.28107896795 0.7 0  0.28107896795 0.65 0  0.28107896795 0.6 0  0.28107896795 0.55 0  0.28107896795 0.5 0  0.28107896795 0.45 0  0.28107896795 0.4 0  0.28107896795 0.35 0  0.28107896795 0.3 0  0.28107896795 0.25 0  0.28107896795 0.2 0  0.28107896795 0.15 0  0.28107896795 0.09999999999999998 0  0.28107896795 0.05000000000000004 0  0.28107896795 0 0  0.309186864745 1 0  0.309186864745 0.95 0  0.309186864745 0.9 0  0.309186864745 0.85 0  0.309186864745 0.8 0  0.309186864745 0.75 0  0.309186864745 0.7 0  0.309186864745 0.65 0  0.309186864745 0.6 0  0.309186864745 0.55 0  0.309186864745 0.5 0  0.309186864745 0.45 0  0.309186864745 0.4 0  0.309186864745 0.35 0  0.309186864745 0.3 0  0.309186864745 0.25 0  0.309186864745 0.2 0  0.309186864745 0.15 0  0.309186864745 0.09999999999999998 0  0.309186864745 0.05000000000000004 0  0.309186864745 0 0  0.33729476154 1 0  0.33729476154 0.95 0  0.33729476154 0.9 0  0.33729476154 0.85 0  0.33729476154 0.8 0  0.33729476154 0.75 0  0.33729476154 0.7 0  0.33729476154 0.65 0  0.33729476154 0.6 0  0.33729476154 0.55 0  0.33729476154 0.5 0  0.33729476154 0.45 0  0.33729476154 0.4 0  0.33729476154 0.35 0  0.33729476154 0.3 0  0.33729476154 0.25 0  0.33729476154 0.2 0  0.33729476154 0.15 0  0.33729476154 0.09999999999999998 0  0.33729476154 0.05000000000000004 0  0.33729476154 0 0  0.365402658335 1 0  0.365402658335 0.95 0  0.365402658335 0.9 0  0.365402658335 0.85 0  0.365402658335 0.8 0  0.365402658335 0.75 0  0.365402658335 0.7 0  0.365402658335 0.65 0  0.365402658335 0.6 0  0.365402658335 0.55 0  0.365402658335 0.5 0  0.365402658335 0.45 0  0.365402658335 0.4 0  0.365402658335 0.35 0  0.365402658335 0.3 0  0.365402658335 0.25 0  0.365402658335 0.2 0  0.365402658335 0.15 0  0.365402658335 0.09999999999999998 0  0.365402658335 0.05000000000000004 0  0.365402658335 0 0  0.3935105551299999 1 0  0.3935105551299999 0.95 0  0.3935105551299999 0.9 0  0.3935105551299999 0.85 0  0.3935105551299999 0.8 0  0.3935105551299999 0.75 0  0.3935105551299999 0.7 0  0.3935105551299999 0.65 0  0.3935105551299999 0.6 0  0.3935105551299999 0.55 0  0.3935105551299999 0.5 0  0.3935105551299999 0.45 0  0.3935105551299999 0.4 0  0.3935105551299999 0.35 0  0.3935105551299999 0.3 0  0.3935105551299999 0.25 0  0.3935105551299999 0.2 0  0.3935105551299999 0.15 0  0.3935105551299999 0.09999999999999998 0  0.3935105551299999 0.05000000000000004 0  0.3935105551299999 0 0  0.421618451925 1 0  0.421618451925 0.95 0  0.421618451925 0.9 0  0.421618451925 0.85 0  0.421618451925 0.8 0  0.421618451925 0.75 0  0.421618451925 0.7 0  0.421618451925 0.65 0  0.421618451925 0.6 0  0.421618451925 0.55 0  0.421618451925 0.5 0  0.421618451925 0.45 0  0.421618451925 0.4 0  0.421618451925 0.35 0  0.421618451925 0.3 0  0.421618451925 0.25 0  0.421618451925 0.2 0  0.421618451925 0.15 0  0.421618451925 0.09999999999999998 0  0.421618451925 0.05000000000000004 0  0.421618451925 0 0  0.44972634872 1 0  0.44972634872 0.95 0  0.44972634872 0.9 0  0.44972634872 0.85 0  0.44972634872 0.8 0  0.44972634872 0.75 0  0.44972634872 0.7 0  0.44972634872 0.65 0  0.44972634872 0.6 0  0.44972634872 0.55 0  0.44972634872 0.5 0  0.44972634872 0.45 0  0.44972634872 0.4 0  0.44972634872 0.35 0  0.44972634872 0.3 0  0.44972634872 0.25 0  0.44972634872 0.2 0  0.44972634872 0.15 0  0.44972634872 0.09999999999999998 0  0.44972634872 0.05000000000000004 0  0.44972634872 0 0  0.477834245515 1 0  0.477834245515 0.95 0  0.477834245515 0.9 0  0.477834245515 0.85 0  0.477834245515 0.8 0  0.477834245515 0.75 0  0.477834245515 0.7 0  0.477834245515 0.65 0  0.477834245515 0.6 0  0.477834245515 0.55 0  0.477834245515 0.5 0  0.477834245515 0.45 0  0.477834245515 0.4 0  0.477834245515 0.35 0  0.477834245515 0.3 0  0.477834245515 0.25 0  0.477834245515 0.2 0  0.477834245515 0.15 0  0.477834245515 0.09999999999999998 0  0.477834245515 0.05000000000000004 0  0.477834245515 0 0  0.50594214231 1 0  0.50594214231 0.95 0  0.50594214231 0.9 0  0.50594214231 0.85 0  0.50594214231 0.8 0  0.50594214231 0.75 0  0.50594214231 0.7 0  0.50594214231 0.65 0  0.50594214231 0.6 0  0.50594214231 0.55 0  0.50594214231 0.5 0  0.50594214231 0.45 0  0.50594214231 0.4 0  0.50594214231 0.35 0  0.50594214231 0.3 0  0.50594214231 0.25 0  0.50594214231 0.2 0  0.50594214231 0.15 0  0.50594214231 0.09999999999999998 0  0.50594214231 0.05000000000000004 0  0.50594214231 0 0  0.5340500391049999 1 0  0.5340500391049999 0.95 0  0.5340500391049999 0.9 0  0.5340500391049999 0.85 0  0.5340500391049999 0.8 0  0.5340500391049999 0.75 0  0.5340500391049999 0.7 0  0.5340500391049999 0.65 0  0.5340500391049999 0.6 0  0.5340500391049999 0.55 0  0.5340500391049999 0.5 0  0.5340500391049999 0.45 0  0.5340500391049999 0.4 0  0.5340500391049999 0.35 0  0.5340500391049999 0.3 0  0.5340500391049999 0.25 0  0.5340500391049999 0.2 0  0.5340500391049999 0.15 0  0.5340500391049999 0.09999999999999998 0  0.5340500391049999 0.05000000000000004 0  0.5340500391049999 0 0  0.5621579359 1 0  0.5621579359 0.95 0  0.5621579359 0.9 0  0.5621579359 0.
[...]
<PointData  Vectors="f_89-0"> 
<DataArray  type="Float64"  Name="f_89-0"  NumberOfComponents="3" format="ascii">8.4876273876494196e+01 0.0000000000000000e+00 0.0000000000000000e+00  8.0087550835303986e+01 2.6778847941105912e+00 0.0000000000000000e+00  6.6060485664642400e+01 5.1269368436395126e+00 0.0000000000000000e+00  4.4472662328954407e+01 6.6442069565046715e+00 0.0000000000000000e+00  2.1083439287601294e+01 5.5942513757816146e+00 0.0000000000000000e+00  5.7766359984016420e+00 2.2821199227492719e+00 0.0000000000000000e+00  5.5953812718662599e-01 3.1887370627959122e-01 0.0000000000000000e+00  -3.2769965149881725e-01 -6.0037584873807871e-02 0.0000000000000000e+00  -2.7509714640959907e-06 1.5632505136034864e-07 0.0000000000000000e+00  -5.6979683115980495e-08 -2.0003496834442090e-08 0.0000000000000000e+00  -6.3217503639516533e-08 -1.7026561935920317e-08 0.0000000000000000e+00  1.6749668512797246e-06 -3.4649801305796752e-07 0.0000000000000000e+00  3.0845139423282128e-06 -7.5835312308014383e-07 0.0000000000000000e+00  3.0935714783212220e-06 -5.4727928453173050e-07 0.0000000000000000e+00  9.2344240100689738e-08 -5.1121028261015989e-08 0.0000000000000000e+00  1.7669688290377548e-07 -5.5558584350416724e-08 0.0000000000000000e+00  3.1415570675485722e-07 -4.3499296336707858e-08 0.0000000000000000e+00  4.0157627025788616e-07 -1.8733904366526714e-08 0.0000000000000000e+00  4.4094687934001220e-07 -7.4464071762413347e-09 0.0000000000000000e+00  4.5493621484877259e-07 -2.4728785986583215e-09 0.0000000000000000e+00  4.5864510020453570e-07 0.0000000000000000e+00 0.0000000000000000e+00  8.6403731970095109e+01 0.0000000000000000e+00 0.0000000000000000e+00  8.1575327025162579e+01 2.7180519077862089e+00 0.0000000000000000e+00  6.7355541671241809e+01 5.3007756921421061e+00 0.0000000000000000e+00  4.4869490885231670e+01 7.2001258193460016e+00 0.0000000000000000e+00  1.9400686478541875e+01 6.1457353521231575e+00 0.0000000000000000e+00  3.9144295871155306e+00 1.8794759276161197e+00 0.0000000000000000e+00  1.0444529372209838e-01 -2.5149215712206803e-02 0.0000000000000000e+00  -3.0591739508573290e-01 -1.5631159346219026e-01 0.0000000000000000e+00  -1.5726439157632438e-06 -6.3800389345501560e-08 0.0000000000000000e+00  -9.1488060188960687e-08 -2.0308752167344353e-08 0.0000000000000000e+00  -2.1697385585631545e-08 -3.0710474713626298e-08 0.0000000000000000e+00  1.4055368612906220e-06 -2.5584388908266281e-07 0.0000000000000000e+00  3.0190893642583459e-06 -9.4230526181132870e-07 0.0000000000000000e+00  3.3824693274382100e-06 -5.3268003460087903e-07 0.0000000000000000e+00  1.2616106035968250e-07 -1.4094236091978688e-07 0.0000000000000000e+00  1.9579372013396740e-07 -1.0914925206642980e-07 0.0000000000000000e+00  3.2843828725067128e-07 -7.2391687688562738e-08 0.0000000000000000e+00  4.0928373966981982e-07 -3.0691727563397993e-08 0.0000000000000000e+00  4.4358787731994202e-07 -1.2005187109486642e-08 0.0000000000000000e+00  4.5632918411392452e-07 -3.9346672436319997e-09 0.0000000000000000e+00  4.5945598953517195e-07 0.0000000000000000e+00 0.0000000000000000e+00  8.7943420983910883e+01 0.0000000000000000e+00 0.0000000000000000e+00  8.3100229604956567e+01 2.7288194185869319e+00 0.0000000000000000e+00  6.8778456425677660e+01 5.4478101508244547e+00 0.0000000000000000e+00  4.5828176733735752e+01 7.9264366104728721e+00 0.0000000000000000e+00  1.6837587906908354e+01 7.1879764654234739e+00 0.0000000000000000e+00  1.8230322817171569e+00 8.3940081320443349e-01 0.0000000000000000e+00  -4.9448840858744639e-02 -5.1672572491154711e-01 0.0000000000000000e+00  -1.8503562100667550e-01 -2.3505304810897371e-01 0.0000000000000000e+00  -1.7806392131069177e-02 -8.9178434074302874e-03 0.0000000000000000e+00  1.5583034435370725e-08 -2.4228032956585016e-08 0.0000000000000000e+00  2.3620170168183656e-08 -2.3726154797946018e-08 0.0000000000000000e+00  7.1077291129434472e-07 -8.5994319730538959e-08 0.0000000000000000e+00  2.8656703682385474e-06 -1.2946038614367581e-06 0.0000000000000000e+00  3.8707520573924053e-06 -2.8695546960678253e-07 0.0000000000000000e+00  2.4239690392925204e-07 -2.9586446040878343e-07 0.0000000000000000e+00  2.7836033553751992e-07 -2.1358248541508079e-07 0.0000000000000000e+00  3.7962512895016479e-07 -1.2219644125455781e-07 0.0000000000000000e+00  4.3168676708013492e-07 -5.1173739230814114e-08 0.0000000000000000e+00  4.5314724269514015e-07 -1.9563570009645205e-08 0.0000000000000000e+00  4.6046645523952710e-07 -6.2290475072881678e-09 0.0000000000000000e+00  4.6208969911204133e-07 0.0000000000000000e+00 0.0000000000000000e+00  8.9447440149638012e+01 0.0000000000000000e+00 0.0000000000000000e+00  8.4590801964828103e+01 2.5790415921671377e+00 0.0000000000000000e+00  7.0224620562833351e+01 5.0424608166046347e+00 0.0000000000000000e+00  4.6925511372348915e+01 7.4282705947260270e+00 0.0000000000000000e+00  1.4328799544388048e+01 7.2108900630777590e+00 0.0000000000000000e+00  2.5743263310672681e-05 -8.4784274089035528e-07 0.0000000000000000e+00  5.6522718686104246e-06 -3.6453631309606622e-07 0.0000000000000000e+00  -1.1494824535607944e-06 -2.0879031373353965e-06 0.0000000000000000e+00  1.3356625840074004e-08 -5.3510012105072857e-07 0.0000000000000000e+00  3.1907038236290133e-07 -6.5002530762290020e-08 0.0000000000000000e+00  3.4082477273293163e-07 6.2477355235589232e-08 0.0000000000000000e+00  2.3835837338699824e-07 1.3065787789332407e-07 0.0000000000000000e+00  3.8854467274517971e-06 -1.5652868337878032e-06 0.0000000000000000e+00  3.6787560813950808e-06 -4.5376037176367334e-07 0.0000000000000000e+00  2.1771811450709878e-07 -3.4626152090131075e-07 0.0000000000000000e+00  3.4137182916623875e-07 -3.1214956034926842e-07 0.0000000000000000e+00  4.4832201376439517e-07 -1.4861224016711717e-07 0.0000000000000000e+00  4.6333587778760728e-07 -6.1491868280465318e-08 0.0000000000000000e+00  4.6668600833796506e-07 -2.2484435474420005e-08 0.0000000000000000e+00  4.6608009776465072e-07 -6.7033937701474573e-09 0.0000000000000000e+00  4.6549383381568357e-07 0.0000000000000000e+00 0.0000000000000000e+00  9.0828012612208369e+01 0.0000000000000000e+00 0.0000000000000000e+00  8.5910932973756516e+01 2.2421607735683660e+00 0.0000000000000000e+00  7.1303371149387601e+01 4.0571075124956009e+00 0.0000000000000000e+00  4.6921517328742716e+01 4.2077859158096516e+00 0.0000000000000000e+00  3.3612061926390163e-04 8.3013333902047228e-07 0.0000000000000000e+00  1.3793828683733306e-05 4.8191749970854133e-06 0.0000000000000000e+00  2.1080349173732136e-06 1.5576720704430078e-06 0.0000000000000000e+00  9.7309227779654776e-07 1.7098871784293101e-07 0.0000000000000000e+00  7.2764026618583202e-07 -2.0442637438208551e-07 0.0000000000000000e+00  7.1154631917873579e-07 -1.1097940703970049e-07 0.0000000000000000e+00  5.6476669268913908e-07 1.9535313061692357e-07 0.0000000000000000e+00  2.7212830631419267e-07 2.1312499002705210e-07 0.0000000000000000e+00  6.2326175820243556e-08 3.6306413625232430e-08 0.0000000000000000e+00  6.3273896346708667e-07 -3.6890921114071068e-07 0.0000000000000000e+00  5.0837101030692361e-07 -3.9917019352867477e-07 0.0000000000000000e+00  5.4742031910788453e-07 -3.5987300937091415e-07 0.0000000000000000e+00  5.2351981632801916e-07 -1.4595325352387228e-07 0.0000000000000000e+00  4.9853485474541640e-07 -5.7239319995721799e-08 0.0000000000000000e+00  4.8122604074036626e-07 -1.8747558651801178e-08 0.0000000000000000e+00  4.7154647576322055e-07 -4.5862146429542446e-09 0.0000000000000000e+00  4.6840762475404118e-07 0.0000000000000000e+00 0.0000000000000000e+00  9.2004869868849326e+01 0.0000000000000000e+00 0.0000000000000000e+00  8.6976938123175898e+01 1.8126452075953330e+00 0.0000000000000000e+00  7.1775605182619046e+01 3.0518264869025082e+00 0.0000000000000000e+00  4.5981058310552626e+01 2.1187108312480767e+00 0.0000000000000000e+00  9.8353263120605359e+00 -8.8883416051085729e-01 0.0000000000000000e+00  1.6912922722725559e-06 -2.1529566623447993e-06 0.0000000000000000e+00  -7.0850929553259472e-08 8.9134845446157827e-07 0.0000000000000000e+00  9.7213973547706125e-07 1.0043669791859900e-07 0.0000000000000000e+00  1.0742710687105087e-06 -1.5939321771291303e-07 0.0000000000000000e+00  9.6858309258451478e-07 -7.7803101255558331e-08 0.0000000000000000e+00  8.9183241302334712e-07 2.9608104838353184e-07 0.0000000000000000e+00  9.6153155440481116e-07 3.3592930884217944e-07 0.0000000000000000e+00  1.7182917587976618e-06 1.7000986382060174e-07 0.0000000000000000e+00  1.4761076462858850e-06 -5.0154360784867131e-07 0.0000000000000000e+00  9.8398267785742580e-07 -4.3647372063896951e-07 0.0000000000000000e+00  7.6389230911902682e-07 -2.8707016229893947e-07 0.0000000000000000e+00  5.9905753966159153e-07 -1.1399032764445694e-07 0.0000000000000000e+00  5.3056565233474538e-07 -3.7741484979401091e-08 0.0000000000000000e+00  4.9344100141574927e-07 -7.9707488341641244e-09 0.0000000000000000e+00  4.7498415982308344e-07 2.9837956385820629e-10 0.0000000000000000e+00  4.6936070014859934e-07 0.0000000000000000e+00 0.0000000000000000e+00  9.2931139411853906e+01 0.0000000000000000e+00 0.0000000000000000e+00  8.7797348573881465e+01 1.3562872493705052e+00 0.0000000000000000e+00  7.2109564395760231e+01 2.3549601926839614e+00 0.0000000000000000e+00  4.5082476015783392e+01 2.5375935661433209e+00 0.0000000000000000e+00  8.8657011843269462e+00 1.3210563402452324e+00 0.0000000000000000e+00  1.7344774292799527e-06 2.2241685798144750e-06 0.0000000000000000e+00  -5.2422038752372830e-08 -3.2960085775123450e-07 0.0000000000000000e+00  8.2234019789646162e-07 -1.1215842986577647e-07 0.0000000000000000e+00  1.0666591338060132e-06 -1.5845395386044874e-07 0.0000000000000000e+00  1.0968499315762778e-06 -3.4802644192445260e-08 0.0000000000000000e+00  1.1954154658827380e-06 2.4784588669665669e-07 0.0000000000000000e+00  1.4117620897357298e-06 2.6671304813852936e-07 0.0000000000000000e+00  1.5892124265756410e-06 6.6559415949473553e-08 0.0000000000000000e+00  1.5182584960335689e-06 -2.6823588587514594e-07 0.0000000000000000e+00  1.1803412748021408e-06 -2.8608796626136294e-07 0.0000000000000000e+00  8.5750426981855969e-07 -1.4870281322555965e-07 0.0000000000000000e+00  6.5789153659412965e-07 -5.1725539074683555e-08 0.0000000000000000e+00  5.5308079880875940e-07 -4.9989885009455422e-09 0.0000000000000000e+00  5.0015443059374349e-07 9.0701181030952725e-09 0.0000000000000000e+00  4.7457214904835421e-07 7.6704263133168522e-09 0.0000000000000000e+00  4.6691429136610203e-07 0.0000000000000000e+00 0.0000000000000000e+00  9.3565568438386535e+01 0.0000000000000000e+00 0.0000000000000000e+00  8.8390657371092018e+01 8.3746282104570224e-01 0.0000000000000000e+00  7.2517882766396454e+01 1.6338713106750475e+00 0.0000000000000000e+00  4.4891173788862865e+01 2.2510184992372015e+00 0.0000000000000000e+00  2.3480855437153284e-04 5.2506233413924414e-05 0.0000000000000000e+00  8.7654938636130651e-06 2.3255616329552018e-07 0.0000000000000000e+00  1.0655761794759098e-06 -1.0332277693759121e-06 0.0000000000000000e+00  9.4208236619471872e-07 -3.0854145797809110e-07 0.0000000000000000e+00  1.1094395670707300e-06 -2.2440336580089747e-07 0.0000000000000000e+00  1.2220817821232982e-06 -4.7052586374530088e-08 0.0000000000000000e+00  1.2798104242344053e-06 1.8000230849625721e-07 0.0000000000000000e+00  1.3934756955865918e-06 1.6053330211951040e-07 0.0000000000000000e+00  1.5531918531709999e-06 -2.8312805680323497e-08 0.0000000000000000e+00  1.5406023070732005e-06 -1.2220363847492236e-07 0.0000000000000000e+00  1.2550099402286293e-06 -6.3184563122844906e-08 0.0000000000000000e+00  9.0755650980811051e-07 5.2232122653403934e-09 0.0000000000000000e+00  6.8268320948804875e-07 3.1021222828229320e-08 0.0000000000000000e+00  5.6129655632449825e-07 3.7166428000400025e-08 0.0000000000000000e+00  4.9882429536102570e-07 3.0632140585279098e-08 0.0000000000000000e+00  4.6883523307390985e-07 1.6879336118255232e-08 0.0000000000000000e+00  4.5988197562151284e-07 0.0000000000000000e+00 0.0000000000000000e+00  9.3847198532804882e+01 0.0000000000000000e+00 0.0000000000000000e+00  8.8713907102466564e+01 1.9158218149005696e-01 0.0000000000000000e+00  7.2867465083857397e+01 6.2833070477759800e-01 0.0000000000000000e+00  4.5047313930913667e+01 1.0448386028249528e+00 0.0000000000000000e+00  1.0161078610718171e-04 5.8386333090501612e-06 0.0000000000000000e+00  1.1896496302595032e-05 2.0719203195805970e-07 0.0000000000000000e+00  2.3639049376197066e-06 -9.2599880723640766e-07 0.0000000000000000e+00  1.0883174073676150e-06 -4.0235545394678297e-07 0.0000000000000000e+00  1.1866504722497531e-06 -3.4673797798080101e-07 0.0000000000000000e+00  1.3643594878969748e-06 -9.7256496688220444e-08 0.0000000000000000e+00  1.3314060983093021e-06 2.2081387094850608e-07 0.0000000000000000e+00  1.2949523294193519e-06 8.0885218908894433e-08 0.0000000000000000e+00  1.4995364287254568e-06 -1.6229188747717008e-07 0.0000000000000000e+00  1.6043987094197920e-06 -4.1417208211798060e-08 0.0000000000000000e+00  1.3044006479047496e-06 1.9743032012051162e-07 0.0000000000000000e+00  9.0455845895447639e-07 1.6976093866301792e-07 0.0000000000000000e+00  6.7460977434940538e-07 1.1966518274224383e-07 0.0000000000000000e+00  5.5203238823172908e-07 8.3335680523996912e-08 0.0000000000000000e+00  4.8804088902257143e-07 5.4378744711709148e-08 0.0000000000000000e+00  4.5684436842668101e-07 2.7022290496989447e-08 0.0000000000000000e+00  4.4750244219589142e-07 0.0000000000000000e+00 0.0000000000000000e+00  9.3690419981658209e+01 0.0000000000000000e+00 0.0000000000000000e+00  8.8680173380832144e+01 -6.2733397845195460e-01 0.0000000000000000e+00  7.3124279864346832e+01 -7.0553264784053960e-01 0.0000000000000000e+00  4.5285048368323380e+01 -1.2746560151273553e-01 0.0000000000000000e+00  9.3958640739620375e-05 7.7826929810941986e-07 0.0000000000000000e+00  9.0090756834517064e-06 -2.0459413811649073e-07 0.0000000000000000e+00  2.0208545739808708e-06 -5.5574745440204960e-07 0.0000000000000000e+00  1.1297094483156489e-06 -3.4835025258661281e-07 0.0000000000000000e+00  1.0122191283163680e-06 -4.5980134079699502e-07 0.0000000000000000e+00  1.1277388485754057e-06 -1.9364758795111188e-07 0.0000000000000000e+00  1.2052350955453682e-06 3.3839965465508906e-07 0.0000000000000000e+00  1.1228733544583689e-06 3.8085964112292504e-08 0.0000000000000000e+00  1.2347167814872938e-06 -2.9132686399178188e-07 0.0000000000000000e+00  1.5205592298283113e-06 -7.2100941525597947e-09 0.0000000000000000e+00  1.2146484758638859e-06 4.6207678899136139e-07 0.0000000000000000e+00  8.4718209474781624e-07 3.3466257578228255e-07 0.0000000000000000e+00  6.3029207940778409e-07 1.9974809550577488e-07 0.0000000000000000e+00  5.2631217054270072e-07 1.2807053955748644e-07 0.0000000000000000e+00  4.6746270131560996e-07 7.7727264694438542e-08 0.0000000000000000e+00  4.3835670571779189e-07 3.7107137526232271e-08 0.0000000000000000e+00  4.2952833110614645e-07 0.0000000000000000e+00 0.0000000000000000e+00  9.2995016093319620e+01 0.0000000000000000e+00 0.0000000000000000e+00  8.8181801864900606e+01 -1.6379851475991527e+00 0.0000000000000000e+00  7.3209839950276532e+01 -2.4361069170718661e+00 0.0000000000000000e+00  4.5960908323270147e+01 -1.5530119551060613e+00 0.0000000000000000e+00  9.4682348464658440e-05 -3.7836625143763543e-07 0.0000000000000000e+00  8.6226988606881932e-06 -5.2305434320532237e-07 0.0000000000000000e+00  1.7679819640404971e-06 -5.7791171044738716e-07 0.0000000000000000e+00  8.4871497686407835e-07 -2.9063937370676272e-07 0.0000000000000000e+00  6.5881491598451121e-07 -4.1985774430551168e-07 0.0000000000000000e+00  4.6089642154456727e-07 -5.0750900410794541e-07 0.0000000000000000e+00  7.8126585203302565e-07 2.9108999323333589e-07 0.0000000000000000e+00  7.7023078436868615e-07 5.1586730397740107e-08 0.0000000000000000e+00  6.2132696986768529e-07 -2.0627951332827063e-07 0.0000000000000000e+00  7.4185810860472649e-07 -3.8518438709217888e-07 0.0000000000000000e+00  7.9372918219025937e-07 5.5514331896447978e-07 0.0000000000000000e+00  6.5132263709966536e-07 4.3087555092473478e-07 0.0000000000000000e+00  5.6788396939433087e-07 2.6474894419249720e-07 0.0000000000000000e+00  4.8560807497923882e-07 1.6666054459736077e-07 0.0000000000000000e+00  4.3802158951279485e-07 9.8199783886078797e-08 0.0000000000000000e+00  4.1381413130005753e-07 4.6245642989856064e-08 0.0000000000000000e+00  4.0622297539774866e-07 0.0000000000000000e+00 0.0000000000000000e+00  9.1673456160743399e+01 0.0000000000000000e+00 0.0000000000000000e+00  8.7097261260583181e+01 -2.8009043311166351e+00 0.0000000000000000e+00  7.2936163637051123e+01 -4.6593441585423028e+00 0.0000000000000000e+00  4.7212465174599473e+01 -3.9541600715515259e+00 0.0000000000000000e+00  1.0744892427476876e-04 -4.7177949433626622e-06 0.0000000000000000e+00  1.0189735946984704e-05 -9.9994762519161899e-07 0.0000000000000000e+00  1.9360647704010552e-06 -6.9770881879541806e-07 0.0000000000000000e+00  1.1304821970025611e-06 9.5313003274341543e-08 0.0000000000000000e+00  6.2418012870737766e-07 -1.8189728361312826e-07 0.0000000000000000e+00  2.9379334774300005e-07 -7.7313535156858095e-08 0.0000000000000000e+00  6.7586129424172486e-08 3.6436481345358382e-08 0.0000000000000000e+00  2.6116155425894720e-07 2.0181486445583316e-08 0.0000000000000000e+00  2.5284852990276687e-07 -6.8339205666440087e-08 0.0000000000000000e+00  -8.5701066283205959e-04 3.5107491556350331e-03 0.0000000000000000e+00  4.7308125957370072e-07 4.7954638173102578e-07 0.0000000000000000e+00  4.8744138233573004e-07 4.0794310985624701e-07 0.0000000000000000e+00  4.9446260588294521e-07 3.1995669980534580e-07 0.0000000000000000e+00  4.3115451632117294e-07 1.9301356720136546e-07 0.0000000000000000e+00  4.0208705230868037e-07 1.1419229444703178e-07 0.0000000000000000e+00  3.8418080817648361e-07 5.3794912396403701e-08 0.0000000000000000e+00  3.7827205739162707e-07 0.0000000000000000e+00 0.0000000000000000e+00  8.9691838684098940e+01 0.0000000000000000e+00 0.0000000000000000e+00  8.5331312169148816e+01 -3.9859353597985629e+00 0.0000000000000000e+00  7.2013355727647991e+01 -7.2104416015177053e+00 0.0000000000000000e+00  4.8305468445449328e+01 -8.1223604666827587e+00 0.0000000000000000e+00  1.5875098315668864e-04 -3.5114671195303190e-05 0.0000000000000000e+00  1.8874647632777185e-05 -8.0520248210269478e-06 0.0000000000000000e+00  4.3526371250978327e-06 -1.7330242033356565e-06 0.0000000000000000e+00  9.8916625468101849e-07 1.2783370769717570e-06 0.0000000000000000e+00  1.8597174334676649e-07 3.3324608525667818e-07 0.0000000000000000e+00  9.4265145958098436e-08 1.7005572028380677e-07 0.0000000000000000e+00  4.5049872032142355e-08 1.8972889860957220e-07 0.0000000000000000e+00  9.4324952118113732e-08 3.1021187580215475e-07 0.0000000000000000e+00  3.1418826514873774e-03 2.5305289884843821e-02 0.0000000000000000e+00  -6.1067168629040658e-03 1.4348108178729536e-02 0.0000000000000000e+00  2.7754249435976489e-07 2.5178918570123832e-07 0.0000000000000000e+00  2.9816408988312875e-07 3.1342506537936182e-07 0.0000000000000000e+00  3.6135284962429484e-07 3.3726292603079263e-07 0.0000000000000000e+00  3.7391130653217885e-07 2.0484833662614011e-07 0.0000000000000000e+00  3.6236830083713829e-07 1.2535776349230967e-07 0.0000000000000000e+00  3.5071675088528720e-07 5.9412073831395968e-08 0.0000000000000000e+00  3.4663241788561425e-07 0.0000000000000000e+00 0.0000000000000000e+00  8.7108341190866000e+01 0.0000000000000000e+00 0.0000000000000000e+00  8.2904851264539957e+01 -4.9751805194569689e+00 0.0000000000000000e+00  7.0159790220714328e+01 -9.4521402886624095e+00 0.0000000000000000e+00  4.8277571316050143e+01 -1.2712755804533446e+01 0.0000000000000000e+00  1.5659035643503337e+01 -1.0591822779944360e+01 0.0000000000000000e+00  2.7199992524233833e-05 -1.9428905509215259e-05 0.0000000000000000e+00  2.3219722639807749e-01 7.8260037849016617e-01 0.0000000000000000e+00  -2.8548634309333643e-01 6.0349271049182529e-01 0.0000000000000000e+00  -2.7383718968938798e-07 1.0611086953866790e-06 0.0000000000000000e