<?xml version="1.0"?>
<VTKFile type="UnstructuredGrid"  version="0.1"  >
<UnstructuredGrid>
<Piece  NumberOfPoints="2478" NumberOfCells="4494">
<Points>
<DataArray  type="Float64"  NumberOfComponents="3"  format="ascii">0 1 0  0 0.98 0  0 0.96 0  0 0.9399999999999999 0  0 0.92 0  0 0.9 0  0 0.88 0  0 0.86 0  0 0.84 0  0 0.8200000000000001 0  0 0.8 0  0 0.78 0  0 0.76 0  0 0.74 0  0 0.72 0  0 0.7 0  0 0.6799999999999999 0  0 0.6599999999999999 0  0 0.64 0  0 0.62 0  0 0.6 0  0 0.5800000000000001 0  0.011243158718 1 0  0.011243158718 0.98 0  0.011243158718 0.96 0  0.011243158718 0.9399999999999999 0  0.011243158718 0.92 0  0.011243158718 0.9 0  0.011243158718 0.88 0  0.011243158718 0.86 0  0.011243158718 0.84 0  0.011243158718 0.8200000000000001 0  0.011243158718 0.8 0  0.011243158718 0.78 0  0.011243158718 0.76 0  0.011243158718 0.74 0  0.011243158718 0.72 0  0.011243158718 0.7 0  0.011243158718 0.6799999999999999 0  0.011243158718 0.6599999999999999 0  0.011243158718 0.64 0  0.011243158718 0.62 0  0.011243158718 0.6 0  0.011243158718 0.5800000000000001 0  0.022486317436 1 0  0.022486317436 0.98 0  0.022486317436 0.96 0  0.022486317436 0.9399999999999999 0  0.022486317436 0.92 0  0.022486317436 0.9 0  0.022486317436 0.88 0  0.022486317436 0.86 0  0.022486317436 0.84 0  0.022486317436 0.8200000000000001 0  0.022486317436 0.8 0  0.022486317436 0.78 0  0.022486317436 0.76 0  0.022486317436 0.74 0  0.022486317436 0.72 0  0.022486317436 0.7 0  0.022486317436 0.6799999999999999 0  0.022486317436 0.6599999999999999 0  0.022486317436 0.64 0  0.022486317436 0.62 0  0.022486317436 0.6 0  0.022486317436 0.5800000000000001 0  0.03372947615399999 1 0  0.03372947615399999 0.98 0  0.03372947615399999 0.96 0  0.03372947615399999 0.9399999999999999 0  0.03372947615399999 0.92 0  0.03372947615399999 0.9 0  0.03372947615399999 0.88 0  0.03372947615399999 0.86 0  0.03372947615399999 0.84 0  0.03372947615399999 0.8200000000000001 0  0.03372947615399999 0.8 0  0.03372947615399999 0.78 0  0.03372947615399999 0.76 0  0.03372947615399999 0.74 0  0.03372947615399999 0.72 0  0.03372947615399999 0.7 0  0.03372947615399999 0.6799999999999999 0  0.03372947615399999 0.6599999999999999 0  0.03372947615399999 0.64 0  0.03372947615399999 0.62 0  0.03372947615399999 0.6 0  0.03372947615399999 0.5800000000000001 0  0.03372947615399999 0.5600000000000001 0  0.044972634872 1 0  0.044972634872 0.98 0  0.044972634872 0.96 0  0.044972634872 0.9399999999999999 0  0.044972634872 0.92 0  0.044972634872 0.9 0  0.044972634872 0.88 0  0.044972634872 0.86 0  0.044972634872 0.84 0  0.044972634872 0.8200000000000001 0  0.044972634872 0.8 0  0.044972634872 0.78 0  0.044972634872 0.76 0  0.044972634872 0.74 0  0.044972634872 0.72 0  0.044972634872 0.7 0  0.044972634872 0.6799999999999999 0  0.044972634872 0.6599999999999999 0  0.044972634872 0.64 0  0.044972634872 0.62 0  0.044972634872 0.6 0  0.044972634872 0.5800000000000001 0  0.044972634872 0.5600000000000001 0  0.05621579359 1 0  0.05621579359 0.98 0  0.05621579359 0.96 0  0.05621579359 0.9399999999999999 0  0.05621579359 0.92 0  0.05621579359 0.9 0  0.05621579359 0.88 0  0.05621579359 0.86 0  0.05621579359 0.84 0  0.05621579359 0.8200000000000001 0  0.05621579359 0.8 0  0.05621579359 0.78 0  0.05621579359 0.76 0  0.05621579359 0.74 0  0.05621579359 0.72 0  0.05621579359 0.7 0  0.05621579359 0.6799999999999999 0  0.05621579359 0.6599999999999999 0  0.05621579359 0.64 0  0.05621579359 0.62 0  0.05621579359 0.6 0  0.05621579359 0.5800000000000001 0  0.05621579359 0.5600000000000001 0  0.06745895230799999 1 0  0.06745895230799999 0.98 0  0.06745895230799999 0.96 0  0.06745895230799999 0.9399999999999999 0  0.06745895230799999 0.92 0  0.06745895230799999 0.9 0  0.06745895230799999 0.88 0  0.06745895230799999 0.86 0  0.06745895230799999 0.84 0  0.06745895230799999 0.8200000000000001 0  0.06745895230799999 0.8 0  0.06745895230799999 0.78 0  0.06745895230799999 0.76 0  0.06745895230799999 0.74 0  0.06745895230799999 0.72 0  0.06745895230799999 0.7 0  0.06745895230799999 0.6799999999999999 0  0.06745895230799999 0.6599999999999999 0  0.06745895230799999 0.64 0  0.06745895230799999 0.62 0  0.06745895230799999 0.6 0  0.06745895230799999 0.5800000000000001 0  0.06745895230799999 0.5600000000000001 0  0.078702111026 1 0  0.078702111026 0.98 0  0.078702111026 0.96 0  0.078702111026 0.9399999999999999 0  0.078702111026 0.92 0  0.078702111026 0.9 0  0.078702111026 0.88 0  0.078702111026 0.86 0  0.078702111026 0.84 0  0.078702111026 0.8200000000000001 0  0.078702111026 0.8 0  0.078702111026 0.78 0  0.078702111026 0.76 0  0.078702111026 0.74 0  0.078702111026 0.72 0  0.078702111026 0.7 0  0.078702111026 0.6799999999999999 0  0.078702111026 0.6599999999999999 0  0.078702111026 0.64 0  0.078702111026 0.62 0  0.078702111026 0.6 0  0.078702111026 0.5800000000000001 0  0.078702111026 0.5600000000000001 0  0.08994526974399999 1 0  0.08994526974399999 0.98 0  0.08994526974399999 0.96 0  0.08994526974399999 0.9399999999999999 0  0.08994526974399999 0.92 0  0.08994526974399999 0.9 0  0.08994526974399999 0.88 0  0.08994526974399999 0.86 0  0.08994526974399999 0.84 0  0.08994526974399999 0.8200000000000001 0  0.08994526974399999 0.8 0  0.08994526974399999 0.78 0  0.08994526974399999 0.76 0  0.08994526974399999 0.74 0  0.08994526974399999 0.7 0  0.08994526974399999 0.6799999999999999 0  0.08994526974399999 0.6599999999999999 0  0.08994526974399999 0.64 0  0.08994526974399999 0.62 0  0.08994526974399999 0.6 0  0.08994526974399999 0.5800000000000001 0  0.08994526974399999 0.5600000000000001 0  0.101188428462 1 0  0.101188428462 0.98 0  0.101188428462 0.96 0  0.101188428462 0.9399999999999999 0  0.101188428462 0.92 0  0.101188428462 0.9 0  0.101188428462 0.88 0  0.101188428462 0.86 0  0.101188428462 0.84 0  0.101188428462 0.8200000000000001 0  0.101188428462 0.8 0  0.101188428462 0.78 0  0.101188428462 0.76 0  0.101188428462 0.74 0  0.101188428462 0.6799999999999999 0  0.101188428462 0.6599999999999999 0  0.101188428462 0.64 0  0.101188428462 0.62 0  0.101188428462 0.6 0  0.11243158718 1 0  0.11243158718 0.98 0  0.11243158718 0.96 0  0.11243158718 0.9399999999999999 0  0.11243158718 0.92 0  0.11243158718 0.9 0  0.11243158718 0.88 0  0.11243158718 0.86 0  0.11243158718 0.84 0  0.11243158718 0.8200000000000001 0  0.11243158718 0.8 0  0.11243158718 0.78 0  0.11243158718 0.76 0  0.11243158718 0.74 0  0.11243158718 0.6799999999999999 0  0.11243158718 0.6599999999999999 0  0.11243158718 0.64 0  0.123674745898 1 0  0.123674745898 0.98 0  0.123674745898 0.96 0  0.123674745898 0.9399999999999999 0  0.123674745898 0.92 0  0.123674745898 0.9 0  0.123674745898 0.88 0  0.123674745898 0.86 0  0.123674745898 0.84 0  0.123674745898 0.8200000000000001 0  0.123674745898 0.8 0  0.123674745898 0.78 0  0.123674745898 0.76 0  0.134917904616 1 0  0.134917904616 0.98 0  0.134917904616 0.96 0  0.134917904616 0.9399999999999999 0  0.134917904616 0.92 0  0.134917904616 0.9 0  0.134917904616 0.88 0  0.134917904616 0.86 0  0.134917904616 0.84 0  0.134917904616 0.8200000000000001 0  0.134917904616 0.8 0  0.134917904616 0.78 0  0.134917904616 0.76 0  0.146161063334 1 0  0.146161063334 0.98 0  0.146161063334 0.96 0  0.146161063334 0.9399999999999999 0  0.146161063334 0.92 0  0.146161063334 0.9 0  0.146161063334 0.88 0  0.146161063334 0.86 0  0.146161063334 0.84 0  0.146161063334 0.8200000000000001 0  0.146161063334 0.8 0  0.146161063334 0.78 0  0.146161063334 0.76 0  0.157404222052 1 0  0.157404222052 0.98 0  0.157404222052 0.96 0  0.157404222052 0.9399999999999999 0  0.157404222052 0.92 0  0.157404222052 0.9 0  0.157404222052 0.88 0  0.157404222052 0.86 0  0.157404222052 0.84 0  0.157404222052 0.8200000000000001 0  0.157404222052 0.8 0  0.157404222052 0.78 0  0.157404222052 0.76 0  0.16864738077 1 0  0.16864738077 0.98 0  0.16864738077 0.96 0  0.16864738077 0.9399999999999999 0  0.16864738077 0.92 0  0.16864738077 0.9 0  0.16864738077 0.88 0  0.16864738077 0.86 0  0.16864738077 0.84 0  0.16864738077 0.8200000000000001 0  0.16864738077 0.8 0  0.16864738077 0.78 0  0.16864738077 0.76 0  0.179890539488 1 0  0.179890539488 0.98 0  0.179890539488 0.96 0  0.179890539488 0.9399999999999999 0  0.179890539488 0.92 0  0.179890539488 0.9 0  0.179890539488 0.88 0  0.179890539488 0.86 0  0.179890539488 0.84 0  0.179890539488 0.8200000000000001 0  0.179890539488 0.8 0  0.179890539488 0.78 0  0.179890539488 0.76 0  0.191133698206 1 0  0.191133698206 0.98 0  0.191133698206 0.96 0  0.191133698206 0.9399999999999999 0  0.191133698206 0.92 0  0.191133698206 0.9 0  0.191133698206 0.88 0  0.191133698206 0.86 0  0.191133698206 0.84 0  0.191133698206 0.8200000000000001 0  0.191133698206 0.8 0  0.191133698206 0.78 0  0.191133698206 0.76 0  0.202376856924 1 0  0.202376856924 0.98 0  0.202376856924 0.96 0  0.202376856924 0.9399999999999999 0  0.202376856924 0.92 0  0.202376856924 0.9 0  0.202376856924 0.88 0  0.202376856924 0.86 0  0.202376856924 0.84 0  0.202376856924 0.8200000000000001 0  0.202376856924 0.8 0  0.202376856924 0.78 0  0.213620015642 1 0  0.213620015642 0.98 0  0.213620015642 0.96 0  0.213620015642 0.9399999999999999 0  0.213620015642 0.92 0  0.213620015642 0.9 0  0.213620015642 0.88 0  0.213620015642 0.86 0  0.213620015642 0.84 0  0.213620015642 0.8200000000000001 0  0.213620015642 0.8 0  0.213620015642 0.78 0  0.22486317436 1 0  0.22486317436 0.98 0  0.22486317436 0.96 0  0.22486317436 0.9399999999999999 0  0.22486317436 0.92 0  0.22486317436 0.9 0  0.22486317436 0.88 0  0.22486317436 0.86 0  0.22486317436 0.84 0  0.22486317436 0.8200000000000001 0  0.22486317436 0.8 0  0.22486317436 0.78 0  0.22486317436 0.36 0  0.22486317436 0.34 0  0.236106333078 1 0  0.236106333078 0.98 0  0.236106333078 0.96 0  0.236106333078 0.9399999999999999 0  0.236106333078 0.92 0  0.236106333078 0.9 0  0.236106333078 0.88 0  0.236106333078 0.86 0  0.236106333078 0.84 0  0.236106333078 0.8200000000000001 0  0.236106333078 0.8 0  0.236106333078 0.78 0  0.236106333078 0.36 0  0.236106333078 0.34 0  0.
[...]
<CellData  Scalars="f">
<DataArray  type="Float64"  Name="f"  format="ascii">2 2 2 2 2 2 2 2 2 2 2 2 2 2 2 2 2 2 2 2 2 2 2 2 2 2 2 2 2 2 2 2 2 2 2 2 2 2 2 2 2 2 2 2 2 2 2 2 2 2 2 2 2 2 2 2 2 2 2 2 2 2 2 2 2 2 2 2 2 2 2 2 2 2 2 2 2 2 2 2 2 2 2 2 2 2 2 2 2 2 2 2 2 2 2 2 2 2 2 2 2 2 2 2 2 2 2 2 2 2 2 2 2 2 2 2 2 2 2 2 2 2 2 2 2 2 2 2 2 2 2 2 2 2 2 2 2 2 2 2 2 2 2 2 2 2 2 2 2 2 2 2 2 2 2 2 2 2 2 2 2 2 2 2 2 2 2 2 2 2 2 2 2 2 2 2 2 2 2 2 2 2 2 2 2 2 2 2 2 2 2 2 2 2 2 2 2 2 2 2 2 2 2 2 2 2 2 2 2 2 2 2 2 2 2 2 2 2 2 2 2 2 2 2 2 2 2 2 2 2 2 2 2 2 2 2 2 2 2 2 2 2 2 2 2 2 2 2 2 2 2 2 2 2 2 2 2 2 2 2 2 2 2 2 2 2 2 2 2 2 2 2 2 2 2 2 2 2 2 2 2 2 2 2 2 2 2 2 2 2 2 2 2 2 2 2 2 2 2 2 2 2 2 2 2 2 2 2 2 2 2 2 2 2 2 2 2 2 2 2 2 2 2 2 2 2 2 2 2 2 2 2 2 2 2 2 2 2 2 2 2 2 2 2 2 2 2 2 2 2 2 2 2 2 2 2 2 2 2 2 2 2 2 2 2 2 2 2 2 2 2 2 2 2 2 2 2 2 2 2 2 2 2 2 2 2 2 2 2 2 2 2 2 2 2 2 2 2 2 2 2 2 2 2 2 2 2 2 2 2 2 2 2 2 2 2 2 2 2 2 2 2 2 2 2 2 2 2 2 2 2 2 2 2 2 2 2 2 2 2 2 2 2 2 2 2 2 2 2 2 2 2 2 2 2 2 2 2 2 2 2 2 2 2 2 2 2 2 2 2 2 2 2 2 2 2 2 2 2 2 2 2 2 2 2 2 2 2 2 2 2 2 2 2 2 2 2 2 2 2 2 2 2 2 2 2 2 2 2 2 2 2 2 2 2 2 2 2 2 2 2 2 2 2 2 2 2 2 2 2 2 2 2 2 2 2 2 2 2 2 2 2 2 2 2 2 2 2 2 2 2 2 2 2 2 2 2 2 2 2 2 2 2 2 2 2 2 2 2 2 2 2 2 2 2 2 2 2 2 2 2 2 2 2 2 2 2 2 2 2 2 2 2 2 2 2 2 2 2 2 2 2 2 2 2 2 2 2 2 2 2 2 2 2 2 2 2 2 2 2 2 2 2 2 2 2 2 2 2 2 2 2 2 2 2 2 2 2 2 2 2 2 2 2 2 2 2 2 2 2 2 2 2 2 2 2 2 2 2 2 2 2 2 2 2 2 2 2 2 2 2 2 2 2 2 2 2 2 2 2 2 2 2 2 2 2 2 2 2 2 2 2 2 2 2 2 2 2 2 2 2 2 2 2 2 2 2 2 2 2 2 2 2 2 2 2 2 2 2 2 2 2 2 2 2 2 2 2 2 2 2 2 2 2 2 2 2 2 2 2 2 2 2 2 2 2 2 2 2 2 2 2 2 2 2 2 2 2 2 2 2 2 2 2 2 2 2 2 2 2 2 2 2 2 2 2 2 2 2 2 2 2 2 2 2 2 2 2 2 2 2 2 2 2 2 2 2 2 2 2 2 2 2 2 2 2 2 2 2 2 2 2 2 2 2 2 2 2 2 2 2 2 2 2 2 2 2 2 2 2 2 2 2 2 2 2 2 2 2 2 2 2 2 2 2 2 2 2 2 2 2 2 2 2 2 2 2 2 2 2 2 2 2 2 2 2 2 2 2 2 2 2 2 2 2 2 2 2 2 2 2 2 2 2 2 2 2 2 2 2 2 2 2 2 2 2 2 2 2 2 2 2 2 2 2 2 2 2 2 2 2 2 2 2 2 2 2 2 2 2 2 2 2 2 2 2 2 2 2 2 2 2 2 2 2 2 2 2 2 2 2 2 2 2 2 2 2 2 2 2 2 2 2 2 2 2 2 2 2 2 2 2 2 2 2 2 2 2 2 2 2 2 2 2 2 2 2 2 2 2 2 2 2 2 2 2 2 2 2 2 2 2 2 2 2 2 2 2 2 2 2 2 2 2 2 2 2 2 2 2 2 2 2 2 2 2 2 2 2 2 2 2 2 2 2 2 2 2 2 2 2 2 2 2 2 2 2 2 2 2 2 2 2 2 2 2 2 2 2 2 2 2 2 2 2 2 2 2 2 2 2 2 2 2 2 2 2 2 2 2 2 2 2 2 2 2 2 2 2 2 2 2 2 2 2 2 2 2 2 2 2 2 2 2 2 2 2 2 2 2 2 2 2 2 2 2 2 2 2 2 2 2 2 2 2 2 2 2 2 2 2 2 2 2 2 2 2 2 2 2 2 2 2 2 2 2 2 2 2 2 2 2 2 2 2 2 2 2 2 2 2 2 2 2 2 2 2 2 2 2 2 2 2 2 2 2 2 2 2 2 2 2 2 2 2 2 2 2 2 2 2 2 2 2 2 2 2 2 2 2 2 2 2 2 2 2 2 2 2 2 2 2 2 2 2 2 2 2 2 2 2 2 2 2 2 2 2 2 2 2 2 2 2 2 2 2 2 2 2 2 2 2 2 2 2 2 2 2 2 2 2 2 2 2 2 2 2 2 2 2 2 2 2 2 2 2 2 2 2 2 2 2 2 2 2 2 2 2 2 2 2 2 2 2 2 2 2 2 2 2 2 2 2 2 2 2 2 2 2 2 2 2 2 2 2 2 2 2 2 2 2 2 2 2 2 2 2 2 2 2 2 2 2 2 2 2 2 2 2 2 2 2 2 2 2 2 2 2 2 2 2 2 2 2 2 2 2 2 2 2 2 2 2 2 2 2 2 2 2 2 2 2 2 2 2 2 2 2 2 2 2 2 2 2 2 2 2 2 2 2 2 2 2 2 2 2 2 2 2 2 2 2 2 2 2 2 2 2 2 2 2 2 2 2 2 2 2 2 2 2 2 2 2 2 2 2 2 2 2 2 2 2 2 2 2 2 2 2 2 2 2 2 2 2 2 2 2 2 2 2 2 2 2 2 2 2 2 2 2 2 2 2 2 2 2 2 2 2 2 2 2 2 2 2 2 2 2 2 2 2 2 2 2 2 2 2 2 2 2 2 2 2 2 2 2 2 2 2 2 2 2 2 2 2 2 2 2 2 2 2 2 2 2 2 2 2 2 2 2 2 2 2 2 2 2 2 2 2 2 2 2 2 2 2 2 2 2 2 2 2 2 2 2 2 2 2 2 2 2 2 2 2 2 2 2 2 2 2 2 2 2 2 2 2 2 2 2 2 2 2 2 2 2 2 2 2 2 2 2 2 2 2 2 2 2 2 2 2 2 2 2 2 2 2 2 2 2 2 2 2 2 2 2 2 2 2 2 2 2 2 2 2 2 2 2 2 2 2 2 2 2 2 2 2 2 2 2 2 2 2 2 2 2 2 2 2 2 2 2 2 2 2 2 2 2 2 2 2 2 2 2 2 2 2 2 2 2 2 2 2 2 2 2 2 2 2 2 2 2 2 2 2 2 2 2 2 2 2 2 2 2 2 2 2 2 2 2 2 2 2 2 2 2 2 2 2 2 2 2 2 2 2 2 2 2 2 2 2 2 2 2 2 2 2 2 2 2 2 2 2 2 2 2 2 2 2 2 2 2 2 2 2 2 2 2 2 2 2 2 2 2 2 2 2 2 2 2 2 2 2 2 2 2 2 2 2 2 2 2 2 2 2 2 2 2 2 2 2 2 2 2 2 2 2 2 2 2 2 2 2 2 2 2 2 2 2 2 2 2 2 2 2 2 2 2 2 2 2 2 2 2 2 2 2 2 2 2 2 2 2 2 2 2 2 2 2 2 2 2 2 2 2 2 2 2 2 2 2 2 2 2 2 2 2 2 2 2 2 2 2 2 2 2 2 2 2 2 2 2 2 2 2 2 2 2 2 2 2 2 2 2 2 2 2 2 2 2 2 2 2 2 2 2 2 2 2 2 2 2 2 2 2 2 2 2 2 2 2 2 2 2 2 2 2 2 2 2 2 2 2 2 2 2 2 2 2 2 2 2 2 2 2 2 2 2 2 2 2 2 2 2 2 2 2 2 2 2 2 2 2 2 2 2 2 2 2 2 2 2 2 2 2 2 2 2 2 2 2 2 2 2 2 2 2 2 2 2 2 2 2 2 2 2 2 2 2 2 2 2 2 2 2 2 2 2 2 2 2 2 2 2 2 2 2 2 2 2 2 2 2 2 2 2 2 2 2 2 2 2 2 2 2 2 2 2 2 2 2 2 2 2 2 2 2 2 2 2 2 2 2 2 2 2 2 2 2 2 2 2 2 2 2 2 2 2 2 2 2 2 2 2 2 2 2 2 2 2 2 2 2 2 2 2 2 2 2 2 2 2 2 2 2 2 2 2 2 2 2 2 2 2 2 2 2 2 2 2 2 2 2 2 2 2 2 2 2 2 2 2 2 2 2 2 2 2 2 2 2 2 2 2 2 2 2 2 2 2 2 2 2 2 2 2 2 2 2 2 2 2 2 2 2 2 2 2 2 2 2 2 2 2 2 2 2 2 2 2 2 2 2 2 2 2 2 2 2 2 2 2 2 2 2 2 2 2 2 2 2 2 2 2 2 2 2 2 2 2 2 2 2 2 2 2 2 2 2 2 2 2 2 2 2 2 2 2 2 2 2 2 2 2 2 2 2 2 2 2 2 2 2 2 2 2 2 2 2 2 2 2 2 2 2 2 2 2 2 2 2 2 2 2 2 2 2 2 2 2 2 2 2 2 2 2 2 2 2 2 2 2 2 2 2 2 2 2 2 2 2 2 2 2 2 2 2 2 2 2 2 2 2 2 2 2 2 2 2 2 2 2 2 2 2 2 2 2 2 2 2 2 2 2 2 2 2 2 2 2 2 2 2 2 2 2 2 2 2 2 2 2 2 2 2 2 2 2 2 2 2 2 2 2 2 2 2 2 2 2 2 2 2 2 2 2 2 2 2 2 2 2 2 2 2 2 2 2 2 2 2 2 2 2 2 2 2 2 2 2 2 2 2 2 2 2 2 2 2 2 2 2 2 2 2 2 2 2 2 2 2 2 2 2 2 2 2 2 2 2 2 2 2 2 2 2 2 2 2 2 2 2 2 2 2 2 2 2 2 2 2 2 2 2 2 2 2 2 2 2 2 2 2 2 2 2 2 2 2 2 2 2 2 2 2 2 2 2 2 2 2 2 2 2 2 2 2 2 2 2 2 2 2 2 2 2 2 2 2 2 2 2 2 2 2 2 2 2 2 2 2 2 2 2 2 2 2 2 2 2 2 2 2 2 2 2 2 2 2 2 2 2 2 2 2 2 2 2 2 2 2 2 2 2 2 2 2 2 2 2 2 2 2 2 2 2 2 2 2 2 2 2 2 2 2 2 2 2 2 2 2 2 2 2 2 2 2 2 2 2 2 2 2 2 2 2 2 2 2 2 2 2 2 2 2 2 2 2 2 2 2 2 2 2 2 2 2 2 2 2 2 2 2 2 2 2 2 2 2 2 2 2 2 2 2 2 2 2 2 2 2 2 2 2 2 2 2 2 2 2 2 2 2 2 2 2 2 2 2 2 2 2 2 2 2 2 2 2 2 2 2 2 2 2 2 2 2 2 2 2 2 2 2 2 2 2 2 2 2 2 2 2 2 2 2 2 2 2 2 2 2 2 2 2 2 2 2 2 2 2 2 2 2 2 2 2 2 2 2 2 2 2 2 2 2 2 2 2 2 2 2 2 2 2 2 2 2 2 2 2 2 2 2 2 2 2 2 2 2 2 2 2 2 2 2 2 2 2 2 2 2 2 2 2 2 2 2 2 2 2 2 2 2 2 2 2 2 2 2 2 2 2 2 2 2 2 2 2 2 2 2 2 2 2 2 2 2 2 2 2 2 2 2 2 2 2 2 2 2 2 2 2 2 2 2 2 2 2 2 2 2 2 2 2 2 2 2 2 2 2 2 2 2 2 2 2 2 2 2 2 2 2 2 2 2 2 2 2 2 2 2 2 2 2 2 2 2 2 2 2 2 2 2 2 2 2 2 2 2 2 2 2 2 2 2 2 2 2 2 2 2 2 2 2 2 2 2 2 2 2 2 2 2 2 2 2 2 2 2 2 2 2 2 2 2 2 2 2 2 2 2 2 2 2 2 2 2 2 2 2 2 2 2 2 2 2 2 2 2 2 2 2 2 2 2 2 2 2 2 2 2 2 2 2 2 2 2 2 2 2 2 2 2 2 2 2 2 2 2 2 2 2 2 2 2 2 2 2 2 2 2 2 2 2 2 2 2 2 2 2 2 2 2 2 2 2 2 2 2 2 2 2 2 2 2 2 2 2 2 2 2 2 2 2 2 2 2 2 2 2 2 2 2 2 2 2 2 2 2 2 2 2 2 2 2 2 2 2 2 2 2 2 2 2 2 2 2 2 2 2 2 2 2 2 2 2 2 2 2 2 2 2 2 2 2 2 2 2 2 2 2 2 2 2 2 2 2 2 2 2 2 2 2 2 2 2 2 2 2 2 2 2 2 2 2 2 2 2 2 2 2 2 2 2 2 2 2 2 2 2 2 2 2 2 2 2 2 2 2 2 2 2 2 2 2 2 2 2 2 2 2 2 2 2 2 2 2 2 2 2 2 2 2 2 2 2 2 2 2 2 2 2 2 2 2 2 2 2 2 2 2 2 2 2 2 2 2 2 2 2 2 2 2 2 2 2 2 2 2 2 2 2 2 2 2 2 2 2 2 2 2 2 2 2 2 2 2 2 2 2 2 2 2 2 2 2 2 2 2 2 2 2 2 2 2 2 2 2 2 2 2 2 2 2 2 2 2 2 2 2 2 2 2 2 2 2 2 2 2 2 2 2 2 2 2 2 2 2 2 2 2 2 2 2 2 2 2 2 2 2 2 2 2 2 2 2 2 2 2 2 2 2 2 2 2 2 2 2 2 2 2 2 2 2 2 2 2 2 2 2 2 2 2 2 2 2 2 2 2 2 2 2 2 2 2 2 2 2 2 2 2 2 2 2 2 2 2 2 2 2 2 2 2 2 2 2 2 2 2 2 2 2 2 2 2 2 2 2 2 2 2 2 2 2 2 2 2 2 2 2 2 2 2 2 2 2 2 2 2 2 2 2 2 2 2 2 2 2 2 2 2 2 2 2 2 2 2 2 2 2 2 2 2 2 2 2 2 2 2 2 2 2 2 2 2 2 2 2 2 2 2 2 2 2 2 2 2 2 2 2 2 2 2 2 2 2 2 2 2 2 2 2 2 2 2 2 2 2 2 2 2 2 2 2 2 2 2 2 2 2 2 2 2 2 2 2 2 2 2 2 2 2 2 2 2 2 2 2 2 2 2 2 2 2 2 2 2 2 2 2 2 2 2 2 2 2 2 2 2 2 2 2 2 2 2 2 2 2 2 2 2 2 2 2 2 2 2 2 2 2 2 2 2 2 2 2 2 2 2 2 2 2 2 2 2 2 2 2 2 2 2 2 2 2 2 2 2 2 2 2 2 2 2 2 2 2 2 2 2 2 2 2 2 2 2 2 2 2 2 2 2 2 2 2 2 2 2 2 2 2 2 2 2 2 2 2 2 2 2 2 2 2 2 2 2 2 2 2 2 2 2 2 2 2 2 2 2 2 2 2 2 2 2 2 2 2 2 2 2 2 2 2 2 2 2 2 2 2 2 2 2 2 2 2 2 2 2 2 2 2 2 2 2 2 2 2 2 2 2 2 2 2 2 2 2 2 2 2 2 2 2 2 2 2 2 2 2 2 2 2 2 2 2 2 2 2 2 2 2 2 2 2 2 2 2 2 2 2 2 2 2 2 2 2 2 2 2 2 2 2 2 2 2 2 2 2 2 2 2 2 2 2 2 2 2 2 2 2 2 2 2 2 2 2 2 2 2 2 2 2 2 2 2 2 2 2 2 2 2 2 2 2 2 2 2 2 2 2 2 2 2 2 2 2 2 2 2 2 2 2 2 2 2 2 2 2 2 2 2 2 2 2 2 2 2 2 2 2 2 2 2 2 2 2 2 2 2 2 2 2 2 2 2 2 2 2 2 2 2 2 2 2 2 2 2 2 2 2 2 2 2 2 2 2 2 2 2 2 2 2 2 2 2 2 2 2 2 2 2 2 2 2 2 2 2 2 2 2 2 2 2 2 2 2 2 2 2 2 2 2 2 2 2 2 2 2 2 2 2 2 2 2 2 2 2 2 2 2 2 2 2 2 2 2 2 2 2 2 2 2 2 2 2 2 2 2 2 2 2 2 2 2 2 2 2 2 2 2 2 2 2 2 2 2 2 2 2 2 2 2 2 2 2 2 2 2 2 2 2 2 2 2 2 2 2 2 2 2 2 2 2 2 2 2 2 2 2 2 2 2 2 2 2 2 2 2 2 2 2 2 2 2 2 2 2 2 2 2 2 2 2 2 2 2 2 2 2 2 2 2 2 2 2 2 2 2 2 2 2 2 2 2 2 2 2 2 2 2 2 2 2 2 2 2 2 2 2 2 2 2 2 2 2 2 2 2 2 2 2 2 2 2 2 2 2 2 2 2 2 2 2 2 2 2 2 2 2 2 2 2 2 2 2 2 2 2 2 2 2 2 2 2 2 2 2 2 2 2 2 2 2 2 2 2 2 2 2 2 2 2 2 2 2 2 2 2 2 2 2 2 2 2 2 2 2 2 2 2 2 2 2 2 2 2 2 2 2 2 2 2 2 2 2 2 2 2 2 2 2 2 2 2 2 2 2 2 2 2 2 2 2 2 2 2 2 2 2 2 2 2 2 2 2 2 2 2 2 2 2 2 2 2 2 2 2 2 2 2 2 2 2 2 2 2 2 2 2 2 2 2 2 2 2 2 2 2 2 2 2 2 2 2 2 2 2 2 2 2 2 2 2 2 2 2 2 2 2 2 2 2 2 2 2 2 2 2 2 2 2 2 2 2 2 2 2 2 2 2 2 2 2 2 2 2 2 2 2 2 2 2 2 2 2 2 2 2 2 2 2 2 2 2 2 2 2 2 2 2 2 2 2 2 2 2 2 2 2 2 2 2 2 2 2 2 2 2 2 2 2 2 2 2 2 2 2 2 2 2 2 2 2 2 2 2 2 2 2 2 2 2 2 2 2 2 2 2 2 2 2 2 2 2 2 2 2 2 2 2 2 2 2 2 2 2 2 2 2 2 2 2 2 2 2 2 2 2 2 2 2 2 2 2 2 2 2 2 2 2 2 2 2 2 2 2 2 2 2 2 2 2 2 2 2 2 2 2 2 2 2 2 2 2 2 2 2 2 2 2 2 2 2 2 2 2 2 2 2 2 2 2 2 2 2 2 2 2 2 2 2 2 2 2 2 2 2 2 2 2 2 2 2 2 2 2 2 2 2 2 2 2 2 2 2 2 2 2 2 2 2 2 2 2 2 2 2 2 2 2 2 2 2 2 2 2 2 2 2 2 2 2 2 2 2 2 2 2 2 2 2 2 2 2 2 2 2 2 2 2 2 2 2 2 2 2 2 2 2 2 2 2 2 2 2 2 2 2 2 2 2 2 2 2 2 2 2 2 2 2 2 2 2 2 2 2 2 2 2 2 2 2 2 2 2 2 2 2 2 2 2 2 2 2 2 2 2 2 2 2 2 2 2 2 2 2 2 2 2 2 2 2 2 2 2 2 2 2 2 2 2 2 2 2 2 2 2 2 2 2 2 2 2 2 2 2 2 2 2 2 2 2 2 2 2 2 2 2 2 2 2 2 2 2 2 2 2 2 2 2 2 2 2 2 2 2 2 2 2 2 2 2 2 2 2 2 2 2 2 2 2 2 2 2 2 2 2 2 2 2 2 2 2 2 2 2 2 2 2 2 2 2 2 2 2 2 2 2 2 </DataArray>
</CellData>
</Piece>
</UnstructuredGrid>
</VTKFile>